# vtk DataFile Version 2.0
Time Step:  0.10
ASCII
DATASET STRUCTURED_POINTS
DIMENSIONS  101  101 1
ORIGIN 0 0 0
SPACING  0.010000  0.010000  1
CELL_DATA    10000
SCALARS Pressure float
LOOKUP_TABLE default
     9.571
     9.561
     9.551
     9.541
     9.532
     9.523
     9.515
     9.507
     9.494
     9.467
     9.440
     9.411
     9.380
     9.345
     9.305
     9.259
     9.208
     9.153
     9.089
     9.016
     8.931
     8.839
     8.742
     8.642
     8.542
     8.440
     8.339
     8.237
     8.135
     8.034
     7.932
     7.831
     7.729
     7.628
     7.527
     7.426
     7.325
     7.224
     7.123
     7.023
     6.922
     6.821
     6.720
     6.620
     6.519
     6.419
     6.318
     6.218
     6.117
     6.017
     5.917
     5.816
     5.716
     5.616
     5.515
     5.415
     5.315
     5.214
     5.114
     5.014
     4.914
     4.814
     4.713
     4.613
     4.513
     4.413
     4.313
     4.213
     4.112
     4.012
     3.912
     3.812
     3.712
     3.612
     3.512
     3.412
     3.312
     3.211
     3.111
     3.011
     2.911
     2.811
     2.711
     2.611
     2.511
     2.411
     2.311
     2.211
     2.111
     2.011
     1.911
     1.810
     1.710
     1.610
     1.510
     1.410
     1.310
     1.210
     1.110
     1.010
     9.571
     9.561
     9.551
     9.541
     9.531
     9.521
     9.511
     9.500
     9.486
     9.467
     9.441
     9.413
     9.384
     9.351
     9.310
     9.263
     9.213
     9.160
     9.100
     9.026
     8.939
     8.844
     8.744
     8.644
     8.542
     8.440
     8.339
     8.237
     8.135
     8.034
     7.932
     7.831
     7.729
     7.628
     7.527
     7.426
     7.325
     7.224
     7.123
     7.022
     6.922
     6.821
     6.720
     6.620
     6.519
     6.419
     6.318
     6.218
     6.117
     6.017
     5.917
     5.816
     5.716
     5.616
     5.515
     5.415
     5.315
     5.214
     5.114
     5.014
     4.914
     4.814
     4.713
     4.613
     4.513
     4.413
     4.313
     4.213
     4.112
     4.012
     3.912
     3.812
     3.712
     3.612
     3.512
     3.412
     3.312
     3.211
     3.111
     3.011
     2.911
     2.811
     2.711
     2.611
     2.511
     2.411
     2.311
     2.211
     2.111
     2.011
     1.911
     1.810
     1.710
     1.610
     1.510
     1.410
     1.310
     1.210
     1.110
     1.010
     9.571
     9.561
     9.551
     9.541
     9.530
     9.519
     9.508
     9.494
     9.478
     9.459
     9.436
     9.412
     9.386
     9.359
     9.321
     9.270
     9.218
     9.169
     9.117
     9.050
     8.955
     8.852
     8.749
     8.646
     8.543
     8.441
     8.339
     8.237
     8.135
     8.033
     7.932
     7.830
     7.729
     7.628
     7.527
     7.426
     7.325
     7.224
     7.123
     7.022
     6.922
     6.821
     6.720
     6.620
     6.519
     6.419
     6.318
     6.218
     6.117
     6.017
     5.917
     5.816
     5.716
     5.616
     5.515
     5.415
     5.315
     5.214
     5.114
     5.014
     4.914
     4.814
     4.713
     4.613
     4.513
     4.413
     4.313
     4.213
     4.112
     4.012
     3.912
     3.812
     3.712
     3.612
     3.512
     3.412
     3.312
     3.211
     3.111
     3.011
     2.911
     2.811
     2.711
     2.611
     2.511
     2.411
     2.311
     2.211
     2.111
     2.011
     1.911
     1.810
     1.710
     1.610
     1.510
     1.410
     1.310
     1.210
     1.110
     1.010
     9.571
     9.561
     9.551
     9.541
     9.530
     9.519
     9.506
     9.492
     9.475
     9.454
     9.432
     9.407
     9.381
     9.355
     9.323
     9.277
     9.226
     9.177
     9.127
     9.069
     8.977
     8.861
     8.752
     8.647
     8.544
     8.441
     8.338
     8.236
     8.135
     8.033
     7.932
     7.830
     7.729
     7.628
     7.527
     7.426
     7.325
     7.224
     7.123
     7.022
     6.922
     6.821
     6.720
     6.620
     6.519
     6.419
     6.318
     6.218
     6.117
     6.017
     5.916
     5.816
     5.716
     5.615
     5.515
     5.415
     5.315
     5.214
     5.114
     5.014
     4.914
     4.814
     4.713
     4.613
     4.513
     4.413
     4.313
     4.213
     4.112
     4.012
     3.912
     3.812
     3.712
     3.612
     3.512
     3.412
     3.312
     3.211
     3.111
     3.011
     2.911
     2.811
     2.711
     2.611
     2.511
     2.411
     2.311
     2.211
     2.111
     2.011
     1.910
     1.810
     1.710
     1.610
     1.510
     1.410
     1.310
     1.210
     1.110
     1.010
     9.571
     9.561
     9.551
     9.541
     9.530
     9.519
     9.507
     9.492
     9.475
     9.454
     9.430
     9.404
     9.376
     9.347
     9.315
     9.278
     9.236
     9.189
     9.135
     9.070
     8.979
     8.861
     8.752
     8.647
     8.543
     8.440
     8.338
     8.236
     8.134
     8.033
     7.931
     7.830
     7.728
     7.627
     7.526
     7.425
     7.324
     7.224
     7.123
     7.022
     6.921
     6.821
     6.720
     6.619
     6.519
     6.418
     6.318
     6.218
     6.117
     6.017
     5.916
     5.816
     5.716
     5.615
     5.515
     5.415
     5.315
     5.214
     5.114
     5.014
     4.914
     4.813
     4.713
     4.613
     4.513
     4.413
     4.313
     4.213
     4.112
     4.012
     3.912
     3.812
     3.712
     3.612
     3.512
     3.412
     3.311
     3.211
     3.111
     3.011
     2.911
     2.811
     2.711
     2.611
     2.511
     2.411
     2.311
     2.211
     2.111
     2.011
     1.910
     1.810
     1.710
     1.610
     1.510
     1.410
     1.310
     1.210
     1.110
     1.010
     9.572
     9.562
     9.551
     9.541
     9.531
     9.520
     9.509
     9.497
     9.481
     9.460
     9.434
     9.403
     9.372
     9.342
     9.311
     9.279
     9.242
     9.194
     9.131
     9.054
     8.958
     8.854
     8.749
     8.645
     8.542
     8.440
     8.337
     8.235
     8.134
     8.032
     7.931
     7.829
     7.728
     7.627
     7.526
     7.425
     7.324
     7.223
     7.122
     7.022
     6.921
     6.820
     6.720
     6.619
     6.519
     6.418
     6.318
     6.217
     6.117
     6.017
     5.916
     5.816
     5.716
     5.615
     5.515
     5.415
     5.315
     5.214
     5.114
     5.014
     4.914
     4.813
     4.713
     4.613
     4.513
     4.413
     4.313
     4.212
     4.112
     4.012
     3.912
     3.812
     3.712
     3.612
     3.512
     3.412
     3.311
     3.211
     3.111
     3.011
     2.911
     2.811
     2.711
     2.611
     2.511
     2.411
     2.311
     2.211
     2.111
     2.011
     1.910
     1.810
     1.710
     1.610
     1.510
     1.410
     1.310
     1.210
     1.110
     1.010
     9.572
     9.562
     9.552
     9.542
     9.532
     9.522
     9.512
     9.504
     9.494
     9.471
     9.439
     9.407
     9.374
     9.342
     9.310
     9.276
     9.234
     9.180
     9.112
     9.033
     8.943
     8.846
     8.745
     8.643
     8.541
     8.438
     8.336
     8.234
     8.133
     8.031
     7.930
     7.829
     7.727
     7.626
     7.525
     7.425
     7.324
     7.223
     7.122
     7.021
     6.921
     6.820
     6.720
     6.619
     6.519
     6.418
     6.318
     6.217
     6.117
     6.016
     5.916
     5.816
     5.716
     5.615
     5.515
     5.415
     5.314
     5.214
     5.114
     5.014
     4.914
     4.813
     4.713
     4.613
     4.513
     4.413
     4.313
     4.212
     4.112
     4.012
     3.912
     3.812
     3.712
     3.612
     3.512
     3.412
     3.311
     3.211
     3.111
     3.011
     2.911
     2.811
     2.711
     2.611
     2.511
     2.411
     2.311
     2.211
     2.111
     2.011
     1.910
     1.810
     1.710
     1.610
     1.510
     1.410
     1.310
     1.210
     1.110
     1.010
     9.572
     9.562
     9.552
     9.542
     9.533
     9.523
     9.514
     9.507
     9.498
     9.476
     9.445
     9.413
     9.381
     9.346
     9.308
     9.267
     9.219
     9.164
     9.099
     9.024
     8.937
     8.841
     8.742
     8.641
     8.539
     8.437
     8.335
     8.233
     8.132
     8.030
     7.929
     7.828
     7.727
     7.626
     7.525
     7.424
     7.323
     7.222
     7.122
     7.021
     6.920
     6.820
     6.719
     6.619
     6.518
     6.418
     6.317
     6.217
     6.117
     6.016
     5.916
     5.816
     5.715
     5.615
     5.515
     5.415
     5.314
     5.214
     5.114
     5.014
     4.913
     4.813
     4.713
     4.613
     4.513
     4.413
     4.313
     4.212
     4.112
     4.012
     3.912
     3.812
     3.712
     3.612
     3.512
     3.412
     3.311
     3.211
     3.111
     3.011
     2.911
     2.811
     2.711
     2.611
     2.511
     2.411
     2.311
     2.211
     2.111
     2.011
     1.910
     1.810
     1.710
     1.610
     1.510
     1.410
     1.310
     1.210
     1.110
     1.010
     9.573
     9.563
     9.553
     9.543
     9.533
     9.523
     9.514
     9.505
     9.494
     9.478
     9.452
     9.420
     9.388
     9.353
     9.310
     9.261
     9.210
     9.157
     9.098
     9.026
     8.938
     8.841
     8.741
     8.639
     8.537
     8.435
     8.334
     8.232
     8.131
     8.029
     7.928
     7.827
     7.726
     7.625
     7.524
     7.423
     7.323
     7.222
     7.121
     7.021
     6.920
     6.820
     6.719
     6.619
     6.518
     6.418
     6.317
     6.217
     6.117
     6.016
     5.916
     5.816
     5.715
     5.615
     5.515
     5.414
     5.314
     5.214
     5.114
     5.014
     4.913
     4.813
     4.713
     4.613
     4.513
     4.413
     4.312
     4.212
     4.112
     4.012
     3.912
     3.812
     3.712
     3.612
     3.512
     3.411
     3.311
     3.211
     3.111
     3.011
     2.911
     2.811
     2.711
     2.611
     2.511
     2.411
     2.311
     2.211
     2.111
     2.011
     1.910
     1.810
     1.710
     1.610
     1.510
     1.410
     1.310
     1.210
     1.110
     1.010
     9.573
     9.563
     9.553
     9.543
     9.533
     9.523
     9.513
     9.502
     9.488
     9.471
     9.448
     9.422
     9.392
     9.357
     9.313
     9.258
     9.204
     9.154
     9.104
     9.041
     8.949
     8.845
     8.741
     8.638
     8.536
     8.434
     8.332
     8.231
     8.129
     8.028
     7.927
     7.826
     7.725
     7.624
     7.524
     7.423
     7.322
     7.222
     7.121
     7.020
     6.920
     6.819
     6.719
     6.618
     6.518
     6.417
     6.317
     6.217
     6.116
     6.016
     5.916
     5.815
     5.715
     5.615
     5.515
     5.414
     5.314
     5.214
     5.114
     5.013
     4.913
     4.813
     4.713
     4.613
     4.513
     4.413
     4.312
     4.212
     4.112
     4.012
     3.912
     3.812
     3.712
     3.612
     3.512
     3.411
     3.311
     3.211
     3.111
     3.011
     2.911
     2.811
     2.711
     2.611
     2.511
     2.411
     2.311
     2.211
     2.111
     2.011
     1.910
     1.810
     1.710
     1.610
     1.510
     1.410
     1.310
     1.210
     1.110
     1.010
     9.573
     9.563
     9.553
     9.543
     9.534
     9.523
     9.513
     9.502
     9.489
     9.472
     9.449
     9.422
     9.390
     9.353
     9.307
     9.255
     9.203
     9.153
     9.104
     9.049
     8.966
     8.848
     8.740
     8.636
     8.534
     8.432
     8.330
     8.229
     8.128
     8.027
     7.926
     7.825
     7.724
     7.624
     7.523
     7.422
     7.322
     7.221
     7.120
     7.020
     6.919
     6.819
     6.718
     6.618
     6.517
     6.417
     6.317
     6.216
     6.116
     6.016
     5.915
     5.815
     5.715
     5.615
     5.514
     5.414
     5.314
     5.214
     5.114
     5.013
     4.913
     4.813
     4.713
     4.613
     4.513
     4.412
     4.312
     4.212
     4.112
     4.012
     3.912
     3.812
     3.712
     3.612
     3.511
     3.411
     3.311
     3.211
     3.111
     3.011
     2.911
     2.811
     2.711
     2.611
     2.511
     2.411
     2.311
     2.211
     2.111
     2.010
     1.910
     1.810
     1.710
     1.610
     1.510
     1.410
     1.310
     1.210
     1.110
     1.010
     9.574
     9.564
     9.554
     9.544
     9.534
     9.524
     9.514
     9.504
     9.493
     9.480
     9.455
     9.428
     9.398
     9.362
     9.313
     9.253
     9.198
     9.147
     9.099
     9.042
     8.950
     8.840
     8.735
     8.632
     8.531
     8.429
     8.328
     8.227
     8.127
     8.026
     7.925
     7.824
     7.723
     7.623
     7.522
     7.422
     7.321
     7.220
     7.120
     7.019
     6.919
     6.818
     6.718
     6.618
     6.517
     6.417
     6.316
     6.216
     6.116
     6.015
     5.915
     5.815
     5.715
     5.614
     5.514
     5.414
     5.314
     5.214
     5.113
     5.013
     4.913
     4.813
     4.713
     4.613
     4.512
     4.412
     4.312
     4.212
     4.112
     4.012
     3.912
     3.812
     3.712
     3.612
     3.511
     3.411
     3.311
     3.211
     3.111
     3.011
     2.911
     2.811
     2.711
     2.611
     2.511
     2.411
     2.311
     2.211
     2.111
     2.010
     1.910
     1.810
     1.710
     1.610
     1.510
     1.410
     1.310
     1.210
     1.110
     1.010
     9.574
     9.564
     9.554
     9.544
     9.534
     9.524
     9.514
     9.505
     9.494
     9.480
     9.458
     9.432
     9.404
     9.375
     9.332
     9.266
     9.201
     9.143
     9.087
     9.017
     8.926
     8.828
     8.728
     8.628
     8.527
     8.427
     8.326
     8.226
     8.125
     8.024
     7.924
     7.823
     7.723
     7.622
     7.521
     7.421
     7.320
     7.220
     7.119
     7.019
     6.918
     6.818
     6.718
     6.617
     6.517
     6.416
     6.316
     6.216
     6.116
     6.015
     5.915
     5.815
     5.714
     5.614
     5.514
     5.414
     5.314
     5.213
     5.113
     5.013
     4.913
     4.813
     4.713
     4.613
     4.512
     4.412
     4.312
     4.212
     4.112
     4.012
     3.912
     3.812
     3.712
     3.611
     3.511
     3.411
     3.311
     3.211
     3.111
     3.011
     2.911
     2.811
     2.711
     2.611
     2.511
     2.411
     2.311
     2.211
     2.111
     2.010
     1.910
     1.810
     1.710
     1.610
     1.510
     1.410
     1.310
     1.210
     1.110
     1.010
     9.574
     9.564
     9.554
     9.544
     9.534
     9.525
     9.515
     9.504
     9.493
     9.479
     9.461
     9.438
     9.411
     9.379
     9.338
     9.271
     9.202
     9.138
     9.071
     8.996
     8.911
     8.818
     8.722
     8.623
     8.524
     8.424
     8.324
     8.224
     8.124
     8.023
     7.923
     7.822
     7.722
     7.621
     7.521
     7.420
     7.320
     7.219
     7.119
     7.018
     6.918
     6.817
     6.717
     6.617
     6.516
     6.416
     6.316
     6.216
     6.115
     6.015
     5.915
     5.814
     5.714
     5.614
     5.514
     5.414
     5.313
     5.213
     5.113
     5.013
     4.913
     4.813
     4.713
     4.612
     4.512
     4.412
     4.312
     4.212
     4.112
     4.012
     3.912
     3.812
     3.711
     3.611
     3.511
     3.411
     3.311
     3.211
     3.111
     3.011
     2.911
     2.811
     2.711
     2.611
     2.511
     2.411
     2.311
     2.211
     2.110
     2.010
     1.910
     1.810
     1.710
     1.610
     1.510
     1.410
     1.310
     1.210
     1.110
     1.010
     9.575
     9.565
     9.555
     9.545
     9.535
     9.525
     9.515
     9.505
     9.495
     9.483
     9.468
     9.447
     9.416
     9.375
     9.325
     9.263
     9.198
     9.132
     9.063
     8.986
     8.902
     8.812
     8.717
     8.620
     8.521
     8.422
     8.322
     8.222
     8.122
     8.022
     7.921
     7.821
     7.721
     7.620
     7.520
     7.419
     7.319
     7.219
     7.118
     7.018
     6.917
     6.817
     6.717
     6.616
     6.516
     6.416
     6.315
     6.215
     6.115
     6.015
     5.914
     5.814
     5.714
     5.614
     5.514
     5.413
     5.313
     5.213
     5.113
     5.013
     4.913
     4.813
     4.712
     4.612
     4.512
     4.412
     4.312
     4.212
     4.112
     4.012
     3.912
     3.812
     3.711
     3.611
     3.511
     3.411
     3.311
     3.211
     3.111
     3.011
     2.911
     2.811
     2.711
     2.611
     2.511
     2.411
     2.311
     2.211
     2.110
     2.010
     1.910
     1.810
     1.710
     1.610
     1.510
     1.410
     1.310
     1.210
     1.110
     1.010
     9.575
     9.565
     9.555
     9.545
     9.535
     9.525
     9.515
     9.506
     9.496
     9.487
     9.474
     9.447
     9.414
     9.372
     9.319
     9.258
     9.196
     9.131
     9.061
     8.984
     8.900
     8.809
     8.715
     8.618
     8.520
     8.420
     8.321
     8.221
     8.121
     8.021
     7.920
     7.820
     7.720
     7.619
     7.519
     7.419
     7.318
     7.218
     7.118
     7.017
     6.917
     6.817
     6.716
     6.616
     6.516
     6.415
     6.315
     6.215
     6.115
     6.014
     5.914
     5.814
     5.714
     5.614
     5.513
     5.413
     5.313
     5.213
     5.113
     5.013
     4.913
     4.812
     4.712
     4.612
     4.512
     4.412
     4.312
     4.212
     4.112
     4.012
     3.912
     3.811
     3.711
     3.611
     3.511
     3.411
     3.311
     3.211
     3.111
     3.011
     2.911
     2.811
     2.711
     2.611
     2.511
     2.411
     2.311
     2.210
     2.110
     2.010
     1.910
     1.810
     1.710
     1.610
     1.510
     1.410
     1.310
     1.210
     1.110
     1.010
     9.575
     9.565
     9.555
     9.545
     9.535
     9.525
     9.516
     9.506
     9.496
     9.485
     9.468
     9.445
     9.416
     9.378
     9.320
     9.256
     9.195
     9.134
     9.067
     8.989
     8.903
     8.811
     8.715
     8.617
     8.518
     8.419
     8.319
     8.220
     8.120
     8.019
     7.919
     7.819
     7.719
     7.618
     7.518
     7.418
     7.318
     7.217
     7.117
     7.017
     6.916
     6.816
     6.716
     6.615
     6.515
     6.415
     6.315
     6.215
     6.114
     6.014
     5.914
     5.814
     5.714
     5.613
     5.513
     5.413
     5.313
     5.213
     5.113
     5.013
     4.912
     4.812
     4.712
     4.612
     4.512
     4.412
     4.312
     4.212
     4.112
     4.012
     3.911
     3.811
     3.711
     3.611
     3.511
     3.411
     3.311
     3.211
     3.111
     3.011
     2.911
     2.811
     2.711
     2.611
     2.511
     2.411
     2.311
     2.210
     2.110
     2.010
     1.910
     1.810
     1.710
     1.610
     1.510
     1.410
     1.310
     1.210
     1.110
     1.010
     9.575
     9.565
     9.555
     9.545
     9.535
     9.525
     9.516
     9.506
     9.497
     9.486
     9.470
     9.443
     9.409
     9.366
     9.311
     9.251
     9.195
     9.141
     9.082
     9.004
     8.913
     8.816
     8.717
     8.618
     8.518
     8.418
     8.318
     8.218
     8.118
     8.018
     7.918
     7.818
     7.718
     7.618
     7.517
     7.417
     7.317
     7.217
     7.116
     7.016
     6.916
     6.816
     6.715
     6.615
     6.515
     6.415
     6.314
     6.214
     6.114
     6.014
     5.914
     5.813
     5.713
     5.613
     5.513
     5.413
     5.313
     5.213
     5.112
     5.012
     4.912
     4.812
     4.712
     4.612
     4.512
     4.412
     4.312
     4.212
     4.112
     4.011
     3.911
     3.811
     3.711
     3.611
     3.511
     3.411
     3.311
     3.211
     3.111
     3.011
     2.911
     2.811
     2.711
     2.611
     2.511
     2.411
     2.310
     2.210
     2.110
     2.010
     1.910
     1.810
     1.710
     1.610
     1.510
     1.410
     1.310
     1.210
     1.110
     1.010
     9.575
     9.565
     9.555
     9.545
     9.535
     9.525
     9.515
     9.505
     9.495
     9.483
     9.468
     9.442
     9.402
     9.353
     9.300
     9.248
     9.198
     9.145
     9.092
     9.027
     8.927
     8.822
     8.719
     8.618
     8.518
     8.418
     8.317
     8.217
     8.117
     8.017
     7.917
     7.817
     7.717
     7.617
     7.517
     7.416
     7.316
     7.216
     7.116
     7.015
     6.915
     6.815
     6.715
     6.615
     6.514
     6.414
     6.314
     6.214
     6.114
     6.013
     5.913
     5.813
     5.713
     5.613
     5.513
     5.413
     5.313
     5.212
     5.112
     5.012
     4.912
     4.812
     4.712
     4.612
     4.512
     4.412
     4.312
     4.211
     4.111
     4.011
     3.911
     3.811
     3.711
     3.611
     3.511
     3.411
     3.311
     3.211
     3.111
     3.011
     2.911
     2.811
     2.711
     2.611
     2.511
     2.411
     2.310
     2.210
     2.110
     2.010
     1.910
     1.810
     1.710
     1.610
     1.510
     1.410
     1.310
     1.210
     1.110
     1.010
     9.576
     9.566
     9.556
     9.546
     9.535
     9.525
     9.515
     9.504
     9.493
     9.479
     9.462
     9.436
     9.400
     9.356
     9.307
     9.257
     9.203
     9.147
     9.089
     9.026
     8.941
     8.827
     8.721
     8.618
     8.517
     8.417
     8.316
     8.216
     8.116
     8.016
     7.916
     7.816
     7.716
     7.616
     7.516
     7.416
     7.315
     7.215
     7.115
     7.015
     6.915
     6.814
     6.714
     6.614
     6.514
     6.414
     6.314
     6.213
     6.113
     6.013
     5.913
     5.813
     5.713
     5.613
     5.513
     5.412
     5.312
     5.212
     5.112
     5.012
     4.912
     4.812
     4.712
     4.612
     4.512
     4.412
     4.311
     4.211
     4.111
     4.011
     3.911
     3.811
     3.711
     3.611
     3.511
     3.411
     3.311
     3.211
     3.111
     3.011
     2.911
     2.811
     2.711
     2.611
     2.511
     2.410
     2.310
     2.210
     2.110
     2.010
     1.910
     1.810
     1.710
     1.610
     1.510
     1.410
     1.310
     1.210
     1.110
     1.010
     9.576
     9.566
     9.556
     9.546
     9.536
     9.525
     9.515
     9.504
     9.492
     9.480
     9.465
     9.446
     9.406
     9.360
     9.313
     9.266
     9.212
     9.151
     9.085
     9.014
     8.925
     8.821
     8.718
     8.616
     8.516
     8.416
     8.315
     8.215
     8.115
     8.015
     7.915
     7.815
     7.715
     7.615
     7.515
     7.415
     7.315
     7.215
     7.114
     7.014
     6.914
     6.814
     6.714
     6.614
     6.513
     6.413
     6.313
     6.213
     6.113
     6.013
     5.913
     5.813
     5.712
     5.612
     5.512
     5.412
     5.312
     5.212
     5.112
     5.012
     4.912
     4.812
     4.712
     4.612
     4.511
     4.411
     4.311
     4.211
     4.111
     4.011
     3.911
     3.811
     3.711
     3.611
     3.511
     3.411
     3.311
     3.211
     3.111
     3.011
     2.911
     2.811
     2.711
     2.611
     2.510
     2.410
     2.310
     2.210
     2.110
     2.010
     1.910
     1.810
     1.710
     1.610
     1.510
     1.410
     1.310
     1.210
     1.110
     1.010
     9.576
     9.566
     9.556
     9.546
     9.536
     9.526
     9.515
     9.504
     9.492
     9.479
     9.463
     9.443
     9.411
     9.364
     9.318
     9.273
     9.224
     9.163
     9.087
     9.003
     8.912
     8.814
     8.714
     8.614
     8.514
     8.414
     8.314
     8.214
     8.114
     8.014
     7.914
     7.814
     7.714
     7.614
     7.514
     7.414
     7.314
     7.214
     7.114
     7.014
     6.914
     6.813
     6.713
     6.613
     6.513
     6.413
     6.313
     6.213
     6.113
     6.012
     5.912
     5.812
     5.712
     5.612
     5.512
     5.412
     5.312
     5.212
     5.112
     5.012
     4.912
     4.812
     4.711
     4.611
     4.511
     4.411
     4.311
     4.211
     4.111
     4.011
     3.911
     3.811
     3.711
     3.611
     3.511
     3.411
     3.311
     3.211
     3.111
     3.011
     2.911
     2.811
     2.711
     2.610
     2.510
     2.410
     2.310
     2.210
     2.110
     2.010
     1.910
     1.810
     1.710
     1.610
     1.510
     1.410
     1.310
     1.210
     1.110
     1.010
     9.576
     9.566
     9.556
     9.546
     9.536
     9.526
     9.516
     9.506
     9.494
     9.478
     9.459
     9.435
     9.404
     9.367
     9.325
     9.278
     9.225
     9.167
     9.094
     8.999
     8.905
     8.808
     8.710
     8.612
     8.512
     8.413
     8.313
     8.213
     8.113
     8.014
     7.914
     7.814
     7.714
     7.613
     7.513
     7.413
     7.313
     7.213
     7.113
     7.013
     6.913
     6.813
     6.713
     6.613
     6.513
     6.412
     6.312
     6.212
     6.112
     6.012
     5.912
     5.812
     5.712
     5.612
     5.512
     5.412
     5.312
     5.212
     5.112
     5.011
     4.911
     4.811
     4.711
     4.611
     4.511
     4.411
     4.311
     4.211
     4.111
     4.011
     3.911
     3.811
     3.711
     3.611
     3.511
     3.411
     3.311
     3.211
     3.111
     3.011
     2.911
     2.810
     2.710
     2.610
     2.510
     2.410
     2.310
     2.210
     2.110
     2.010
     1.910
     1.810
     1.710
     1.610
     1.510
     1.410
     1.310
     1.210
     1.110
     1.010
     9.576
     9.566
     9.556
     9.546
     9.536
     9.527
     9.517
     9.508
     9.498
     9.482
     9.458
     9.432
     9.404
     9.371
     9.333
     9.285
     9.226
     9.160
     9.083
     8.993
     8.900
     8.805
     8.708
     8.610
     8.511
     8.412
     8.312
     8.212
     8.113
     8.013
     7.913
     7.813
     7.713
     7.613
     7.513
     7.413
     7.313
     7.213
     7.112
     7.012
     6.912
     6.812
     6.712
     6.612
     6.512
     6.412
     6.312
     6.212
     6.112
     6.012
     5.912
     5.812
     5.712
     5.612
     5.512
     5.411
     5.311
     5.211
     5.111
     5.011
     4.911
     4.811
     4.711
     4.611
     4.511
     4.411
     4.311
     4.211
     4.111
     4.011
     3.911
     3.811
     3.711
     3.611
     3.511
     3.411
     3.311
     3.211
     3.111
     3.011
     2.910
     2.810
     2.710
     2.610
     2.510
     2.410
     2.310
     2.210
     2.110
     2.010
     1.910
     1.810
     1.710
     1.610
     1.510
     1.410
     1.310
     1.210
     1.110
     1.010
     9.577
     9.567
     9.557
     9.547
     9.537
     9.527
     9.517
     9.507
     9.496
     9.481
     9.458
     9.430
     9.402
     9.373
     9.342
     9.300
     9.236
     9.159
     9.077
     8.988
     8.897
     8.802
     8.706
     8.608
     8.510
     8.411
     8.311
     8.212
     8.112
     8.012
     7.912
     7.812
     7.712
     7.612
     7.512
     7.412
     7.312
     7.212
     7.112
     7.012
     6.912
     6.812
     6.712
     6.612
     6.512
     6.412
     6.312
     6.212
     6.112
     6.011
     5.911
     5.811
     5.711
     5.611
     5.511
     5.411
     5.311
     5.211
     5.111
     5.011
     4.911
     4.811
     4.711
     4.611
     4.511
     4.411
     4.311
     4.211
     4.111
     4.011
     3.911
     3.811
     3.711
     3.611
     3.511
     3.411
     3.311
     3.210
     3.110
     3.010
     2.910
     2.810
     2.710
     2.610
     2.510
     2.410
     2.310
     2.210
     2.110
     2.010
     1.910
     1.810
     1.710
     1.610
     1.510
     1.410
     1.310
     1.210
     1.110
     1.010
     9.577
     9.567
     9.557
     9.547
     9.537
     9.527
     9.516
     9.506
     9.493
     9.478
     9.458
     9.433
     9.405
     9.373
     9.339
     9.301
     9.249
     9.164
     9.076
     8.987
     8.896
     8.802
     8.706
     8.608
     8.510
     8.410
     8.311
     8.211
     8.111
     8.011
     7.911
     7.811
     7.711
     7.611
     7.511
     7.411
     7.311
     7.211
     7.111
     7.011
     6.911
     6.811
     6.711
     6.611
     6.511
     6.411
     6.311
     6.211
     6.111
     6.011
     5.911
     5.811
     5.711
     5.611
     5.511
     5.411
     5.311
     5.211
     5.111
     5.011
     4.911
     4.811
     4.711
     4.611
     4.511
     4.411
     4.311
     4.211
     4.111
     4.011
     3.911
     3.811
     3.711
     3.611
     3.511
     3.410
     3.310
     3.210
     3.110
     3.010
     2.910
     2.810
     2.710
     2.610
     2.510
     2.410
     2.310
     2.210
     2.110
     2.010
     1.910
     1.810
     1.710
     1.610
     1.510
     1.410
     1.310
     1.210
     1.110
     1.010
     9.577
     9.567
     9.557
     9.547
     9.537
     9.527
     9.516
     9.505
     9.494
     9.481
     9.463
     9.440
     9.409
     9.372
     9.335
     9.294
     9.237
     9.158
     9.075
     8.989
     8.898
     8.804
     8.707
     8.609
     8.510
     8.410
     8.310
     8.210
     8.110
     8.010
     7.910
     7.810
     7.710
     7.610
     7.510
     7.410
     7.311
     7.211
     7.111
     7.011
     6.911
     6.811
     6.711
     6.611
     6.511
     6.411
     6.311
     6.211
     6.111
     6.011
     5.911
     5.811
     5.711
     5.611
     5.511
     5.411
     5.311
     5.211
     5.111
     5.011
     4.911
     4.811
     4.711
     4.611
     4.511
     4.411
     4.311
     4.211
     4.111
     4.011
     3.910
     3.810
     3.710
     3.610
     3.510
     3.410
     3.310
     3.210
     3.110
     3.010
     2.910
     2.810
     2.710
     2.610
     2.510
     2.410
     2.310
     2.210
     2.110
     2.010
     1.910
     1.810
     1.710
     1.610
     1.510
     1.410
     1.310
     1.210
     1.110
     1.010
     9.578
     9.568
     9.558
     9.547
     9.537
     9.527
     9.516
     9.506