# vtk DataFile Version 2.0
Time Step:  0.30
ASCII
DATASET STRUCTURED_POINTS
DIMENSIONS   21   21 1
ORIGIN 0 0 0
SPACING  0.050000  0.050000  1
CELL_DATA      400
SCALARS Pressure float
LOOKUP_TABLE default
    14.383
    14.335
    14.290
    14.252
    14.218
    14.110
    13.817
    13.449
    13.062
    12.673
    12.225
    11.625
    10.838
     9.796
     8.488
     7.041
     5.543
     4.031
     2.516
     1.002
    14.381
    14.331
    14.280
    14.226
    14.154
    14.046
    13.842
    13.454
    13.064
    12.688
    12.277
    11.740
    11.034
    10.058
     8.628
     7.092
     5.557
     4.033
     2.516
     1.002
    14.378
    14.327
    14.273
    14.212
    14.131
    14.002
    13.790
    13.482
    13.104
    12.677
    12.212
    11.703
    11.126
    10.378
     8.855
     7.140
     5.562
     4.029
     2.513
     1.002
    14.377
    14.326
    14.273
    14.217
    14.159
    14.100
    13.976
    13.618
    13.173
    12.656
    12.170
    11.673
    11.079
    10.114
     8.601
     7.051
     5.521
     4.008
     2.503
     1.002
    14.377
    14.326
    14.274
    14.221
    14.164
    14.100
    14.008
    13.794
    13.445
    12.918
    12.278
    11.622
    10.825
     9.723
     8.382
     6.940
     5.464
     3.979
     2.491
     1.002
    14.377
    14.327
    14.277
    14.226
    14.165
    14.081
    13.959
    13.793
    13.568
    13.180
    12.399
    11.627
    10.707
     9.569
     8.263
     6.863
     5.418
     3.952
     2.479
     1.002
    14.377
    14.328
    14.280
    14.236
    14.199
    14.110
    13.951
    13.761
    13.493
    13.042
    12.475
    11.782
    10.805
     9.583
     8.238
     6.830
     5.391
     3.935
     2.470
     1.002
    14.377
    14.327
    14.276
    14.222
    14.155
    14.066
    13.941
    13.702
    13.346
    12.927
    12.537
    12.071
    11.150
     9.720
     8.275
     6.830
     5.381
     3.925
     2.465
     1.002
    14.377
    14.327
    14.275
    14.215
    14.132
    14.007
    13.823
    13.579
    13.293
    12.959
    12.590
    12.160
    11.497
     9.873
     8.311
     6.834
     5.376
     3.920
     2.462
     1.002
    14.377
    14.328
    14.280
    14.231
    14.173
    14.080
    13.828
    13.540
    13.287
    13.011
    12.638
    12.059
    11.082
     9.700
     8.262
     6.818
     5.371
     3.918
     2.461
     1.002
    14.376
    14.329
    14.285
    14.248
    14.216
    14.137
    13.860
    13.586
    13.302
    12.982
    12.529
    11.832
    10.832
     9.583
     8.220
     6.807
     5.370
     3.920
     2.463
     1.002
    14.373
    14.325
    14.281
    14.244
    14.213
    14.110
    13.872
    13.643
    13.354
    13.016
    12.582
    11.867
    10.831
     9.581
     8.226
     6.819
     5.382
     3.930
     2.468
     1.002
    14.367
    14.317
    14.266
    14.209
    14.131
    14.022
    13.873
    13.676
    13.398
    13.058
    12.728
    12.196
    11.045
     9.683
     8.285
     6.859
     5.411
     3.949
     2.477
     1.002
    14.362
    14.310
    14.256
    14.194
    14.114
    13.999
    13.831
    13.609
    13.357
    13.088
    12.795
    12.400
    11.372
     9.823
     8.372
     6.921
     5.455
     3.977
     2.491
     1.002
    14.358
    14.306
    14.252
    14.197
    14.140
    14.078
    13.936
    13.585
    13.328
    13.099
    12.785
    12.200
    11.155
     9.863
     8.459
     6.998
     5.511
     4.012
     2.508
     1.002
    14.356
    14.304
    14.250
    14.197
    14.147
    14.100
    13.994
    13.625
    13.302
    13.012
    12.586
    11.999
    11.178
    10.014
     8.603
     7.102
     5.579
     4.052
     2.527
     1.002
    14.355
    14.303
    14.248
    14.189
    14.126
    14.057
    13.946
    13.608
    13.170
    12.819
    12.449
    12.011
    11.431
    10.412
     8.836
     7.229
     5.650
     4.092
     2.544
     1.002
    14.357
    14.305
    14.249
    14.183
    14.096
    13.968
    13.768
    13.494
    13.173
    12.829
    12.453
    12.028
    11.531
    10.823
     9.096
     7.330
     5.701
     4.120
     2.557
     1.002
    14.360
    14.310
    14.259
    14.201
    14.121
    14.006
    13.810
    13.477
    13.152
    12.838
    12.484
    12.018
    11.423
    10.422
     8.891
     7.292
     5.704
     4.129
     2.563
     1.002
    14.363
    14.316
    14.274
    14.242
    14.205
    14.026
    13.787
    13.474
    13.150
    12.823
    12.436
    11.912
    11.178
    10.117
     8.751
     7.245
     5.692
     4.129
     2.565
     1.002
SCALARS Saturations float
LOOKUP_TABLE default
     0.000
     0.000
     0.000
     0.000
     0.000
     0.000
     0.000
     0.000
     0.000
     0.000
     0.000
     0.000
     0.000
     0.000
     0.000
     0.000
     0.000
     0.000
     0.000
     0.000
     0.000
     0.000
     0.000
     0.000
     0.000
     0.000
     0.000
     0.000
     0.000
     0.000
     0.000
     0.000
     0.000
     0.000
     0.000
     0.000
     0.000
     0.000
     0.000
     0.000
     0.000
     0.000
     0.000
     0.000
     0.000
     0.000
     0.000
     0.000
     0.000
     0.000
     0.000
     0.000
     0.000
     0.000
     0.000
     0.000
     0.000
     0.000
     0.000
     0.000
     0.000
     0.000
     0.000
     0.000
     0.000
     0.000
     0.000
     0.000
     0.000
     0.000
     0.000
     0.000
     0.000
     0.000
     0.000
     0.000
     0.000
     0.000
     0.000
     0.000
     0.000
     0.000
     0.000
     0.000
     0.000
     0.000
     0.000
     0.000
     0.000
     0.000
     0.000
     0.000
     0.000
     0.000
     0.000
     0.000
     0.000
     0.000
     0.000
     0.000
     0.000
     0.000
     0.000
     0.000
     0.000
     0.000
     0.000
     0.000
     0.000
     0.000
     0.000
     0.000
     0.000
     0.000
     0.000
     0.000
     0.000
     0.000
     0.000
     0.000
     0.000
     0.000
     0.000
     0.000
     0.000
     0.000
     0.000
     0.000
     0.000
     0.000
     0.000
     0.000
     0.000
     0.000
     0.000
     0.000
     0.000
     0.000
     0.000
     0.000
     0.000
     0.000
     0.000
     0.000
     0.000
     0.000
     0.000
     0.000
     0.000
     0.000
     0.000
     0.000
     0.000
     0.000
     0.000
     0.000
     0.000
     0.000
     0.000
     0.000
     0.000
     0.000
     0.000
     0.000
     0.000
     0.000
     0.000
     0.000
     0.000
     0.000
     0.000
     0.000
     0.000
     0.000
     0.000
     0.000
     0.000
     0.000
     0.000
     0.000
     0.000
     0.000
     0.000
     0.000
     0.000
     0.000
     0.000
     0.000
     0.000
     0.000
     0.000
     0.000
     0.000
     0.000
     0.000
     0.000
     0.000
     0.000
     0.000
     0.000
     0.000
     0.000
     0.000
     0.000
     0.000
     0.000
     0.000
     0.000
     0.000
     0.000
     0.000
     0.000
     0.000
     0.000
     0.000
     0.000
     0.000
     0.000
     0.000
     0.000
     0.000
     0.000
     0.000
     0.000
     0.000
     0.000
     0.000
     0.000
     0.000
     0.000
     0.000
     0.000
     0.000
     0.000
     0.000
     0.000
     0.000
     0.000
     0.000
     0.000
     0.000
     0.000
     0.000
     0.000
     0.000
     0.000
     0.000
     0.000
     0.000
     0.000
     0.000
     0.000
     0.000
     0.000
     0.000
     0.000
     0.000
     0.000
     0.000
     0.000
     0.000
     0.000
     0.000
     0.000
     0.000
     0.000
     0.000
     0.000
     0.000
     0.000
     0.000
     0.000
     0.000
     0.000
     0.000
     0.000
     0.000
     0.000
     0.000
     0.000
     0.000
     0.000
     0.000
     0.000
     0.000
     0.000
     0.000
     0.000
     0.000
     0.000
     0.000
     0.000
     0.000
     0.000
     0.000
     0.000
     0.000
     0.000
     0.000
     0.000
     0.000
     0.000
     0.000
     0.000
     0.000
     0.000
     0.000
     0.000
     0.000
     0.000
     0.000
     0.000
     0.000
     0.000
     0.000
     0.000
     0.000
     0.000
     0.000
     0.000
     0.000
     0.000
     0.000
     0.000
     0.000
     0.000
     0.000
     0.000
     0.000
     0.000
     0.000
     0.000
     0.000
     0.000
     0.000
     0.000
     0.000
     0.000
     0.000
     0.000
     0.000
     0.000
     0.000
     0.000
     0.000
     0.000
     0.000
     0.000
     0.000
     0.000
     0.000
     0.000
     0.000
     0.000
     0.000
     0.000
     0.000
     0.000
     0.000
     0.000
     0.000
     0.000
     0.000
     0.000
     0.000
     0.000
     0.000
     0.000
     0.000
     0.000
     0.000
     0.000
     0.000
     0.000
     0.000
     0.000
     0.000
     0.000
     0.000
     0.000
     0.000
     0.000
     0.000
     0.000
     0.000
     0.000
     0.000
     0.000
     0.000
     0.000
     0.000
     0.000
     0.000
     0.000
     0.000
     0.000
     0.000
     0.000
     0.000
     0.000
SCALARS Concentrations float
LOOKUP_TABLE default
     0.999
     0.996
     0.970
     0.799
     0.297
     0.009
     0.006
     0.006
     0.010
     0.011
     0.003
     0.001
     0.000
    -0.000
    -0.000
    -0.000
    -0.000
    -0.000
    -0.000
    -0.000
     0.999
     0.996
     0.982
     0.907
     0.729
     0.478
     0.246
     0.282
     0.358
     0.326
     0.216
     0.104
     0.062
     0.009
    -0.000
    -0.000
    -0.000
    -0.000
    -0.000
    -0.000
     0.999
     0.997
     0.992
     0.976
     0.926
     0.817
     0.714
     0.630
     0.564
     0.528
     0.488
     0.444
     0.349
     0.125
     0.000
    -0.000
    -0.000
    -0.000
    -0.000
    -0.000
     0.999
     0.997
     0.991
     0.966
     0.843
     0.431
     0.079
     0.067
     0.090
     0.195
     0.269
     0.249
     0.124
     0.006
    -0.000
    -0.000
    -0.000
    -0.000
    -0.000
    -0.000
     0.999
     0.998
     0.993
     0.975
     0.914
     0.712
     0.361
     0.113
     0.052
     0.005
     0.002
     0.006
     0.000
    -0.000
    -0.000
    -0.000
    -0.000
    -0.000
    -0.000
    -0.000
     0.999
     0.997
     0.987
     0.938
     0.837
     0.762
     0.674
     0.542
     0.286
     0.019
     0.000
     0.000
    -0.000
    -0.000
    -0.000
    -0.000
    -0.000
    -0.000
    -0.000
    -0.000
     0.999
     0.997
     0.981
     0.866
     0.380
     0.125
     0.133
     0.143
     0.055
     0.006
     0.003
     0.000
     0.000
    -0.000
    -0.000
    -0.000
    -0.000
    -0.000
    -0.000
    -0.000
     0.999
     0.998
     0.991
     0.941
     0.777
     0.547
     0.263
     0.116
     0.104
     0.238
     0.266
     0.119
     0.001
    -0.000
    -0.000
    -0.000
    -0.000
    -0.000
    -0.000
    -0.000
     0.999
     0.998
     0.993
     0.975
     0.937
     0.871
     0.799
     0.712
     0.655
     0.608
     0.539
     0.379
     0.074
    -0.000
    -0.000
    -0.000
    -0.000
    -0.000
    -0.000
    -0.000
     0.999
     0.997
     0.983
     0.904
     0.659
     0.305
     0.222
     0.409
     0.414
     0.287
     0.124
     0.048
     0.001
    -0.000
    -0.000
    -0.000
    -0.000
    -0.000
    -0.000
    -0.000
     0.999
     0.996
     0.974
     0.828
     0.390
     0.018
     0.003
     0.003
     0.003
     0.002
     0.001
     0.000
     0.000
    -0.000
    -0.000
    -0.000
    -0.000
    -0.000
    -0.000
    -0.000
     0.999
     0.996
     0.972
     0.791
     0.260
     0.004
     0.003
     0.004
     0.003
     0.005
     0.001
     0.000
    -0.000
    -0.000
    -0.000
    -0.000
    -0.000
    -0.000
    -0.000
    -0.000
     0.999
     0.997
     0.984
     0.905
     0.764
     0.623
     0.476
     0.299
     0.184
     0.251
     0.202
     0.034
     0.000
    -0.000
    -0.000
    -0.000
    -0.000
    -0.000
    -0.000
    -0.000
     0.999
     0.999
     0.995
     0.986
     0.955
     0.888
     0.824
     0.761
     0.703
     0.651
     0.527
     0.224
    -0.000
    -0.000
    -0.000
    -0.000
    -0.000
    -0.000
    -0.000
    -0.000
     0.999
     0.998
     0.994
     0.968
     0.835
     0.456
     0.148
     0.328
     0.443
     0.299
     0.093
     0.007
    -0.000
    -0.000
    -0.000
    -0.000
    -0.000
    -0.000
    -0.000
    -0.000
     0.999
     0.998
     0.993
     0.966
     0.826
     0.407
     0.030
     0.019
     0.041
     0.014
     0.002
     0.002
     0.000
    -0.000
    -0.000
    -0.000
    -0.000
    -0.000
    -0.000
    -0.000
     0.999
     0.998
     0.993
     0.973
     0.877
     0.569
     0.161
     0.036
     0.140
     0.218
     0.220
     0.186
     0.101
     0.005
    -0.000
    -0.000
    -0.000
    -0.000
    -0.000
    -0.000
     0.999
     0.998
     0.993
     0.984
     0.958
     0.885
     0.803
     0.733
     0.681
     0.645
     0.610
     0.555
     0.410
     0.110
     0.000
    -0.000
    -0.000
    -0.000
    -0.000
    -0.000
     0.999
     0.996
     0.972
     0.859
     0.679
     0.463
     0.263
     0.308
     0.376
     0.333
     0.227
     0.143
     0.080
     0.005
    -0.000
    -0.000
    -0.000
    -0.000
    -0.000
    -0.000
     0.999
     0.994
     0.946
     0.630
     0.094
     0.008
     0.007
     0.007
     0.009
     0.008
     0.003
     0.001
     0.000
    -0.000
    -0.000
    -0.000
    -0.000
    -0.000
    -0.000
    -0.000
SCALARS Vort_mist float
LOOKUP_TABLE default
     0.000
     0.000
     0.000
     0.000
     0.000
     0.000
     0.000
     0.000
     0.000
     0.000
     0.000
     0.000
     0.000
     0.000
     0.000
     0.000
     0.000
     0.000
     0.000
     0.000
     0.000
     0.081
     0.179
     0.283
     0.455
     0.671
     0.783
     0.832
     0.873
     0.832
     0.721
     0.593
     0.473
     0.353
     0.200
     0.078
     0.023
     0.005
    -0.000
     0.000
     0.000
     0.025
     0.021
    -0.052
    -0.105
    -0.116
    -0.180
    -0.200
    -0.114
    -0.042
    -0.004
     0.032
     0.062
     0.062
     0.023
     0.002
    -0.004
    -0.005
    -0.006
     0.000
     0.000
    -0.018
    -0.064
    -0.172
    -0.291
    -0.462
    -0.694
    -0.808
    -0.744
    -0.666
    -0.658
    -0.613
    -0.481
    -0.327
    -0.191
    -0.084
    -0.034
    -0.017
    -0.011
     0.000
     0.000
    -0.027
    -0.048
    -0.021
     0.112
     0.236
     0.270
     0.228
     0.154
     0.047
    -0.080
    -0.112
    -0.091
    -0.088
    -0.081
    -0.053
    -0.030
    -0.018
    -0.013
     0.000
     0.000
    -0.030
    -0.079
    -0.133
    -0.157
    -0.178
    -0.163
    -0.122
    -0.065
    -0.022
    -0.007
     0.046
     0.065
     0.028
    -0.007
    -0.016
    -0.015
    -0.012
    -0.010
     0.000
     0.000
     0.009
     0.026
     0.030
    -0.010
    -0.115
    -0.219
    -0.258
    -0.208
    -0.093
     0.020
     0.105
     0.132
     0.097
     0.041
     0.011
    -0.001
    -0.005
    -0.006
     0.000
     0.000
     0.032
     0.120
     0.283
     0.502
     0.704
     0.840
     0.843
     0.734
     0.670
     0.632
     0.511
     0.334
     0.175
     0.064
     0.020
     0.004
    -0.001
    -0.003
     0.000
     0.000
    -0.028
    -0.049
    -0.055
    -0.035
    -0.027
     0.051
     0.091
     0.038
     0.024
     0.024
    -0.007
    -0.034
    -0.014
    -0.002
    -0.001
    -0.001
    -0.001
    -0.002
     0.000
     0.000
    -0.075
    -0.185
    -0.318
    -0.464
    -0.663
    -0.783
    -0.870
    -0.914
    -0.807
    -0.626
    -0.451
    -0.316
    -0.166
    -0.059
    -0.019
    -0.006
    -0.002
    -0.000
     0.000
     0.000
    -0.033
    -0.094
    -0.155
    -0.157
    -0.144
    -0.150
    -0.201
    -0.245
    -0.203
    -0.104
    -0.031
    -0.040
    -0.048
    -0.027
    -0.011
    -0.003
     0.001
     0.003
     0.000
     0.000
     0.063
     0.129
     0.174
     0.234
     0.280
     0.239
     0.185
     0.134
     0.091
     0.093
     0.101
     0.073
     0.033
     0.011
     0.005
     0.005
     0.006
     0.006
     0.000
     0.000
     0.090
     0.185
     0.268
     0.440
     0.683
     0.829
     0.852
     0.750
     0.638
     0.557
     0.398
     0.212
     0.089
     0.031
     0.016
     0.013
     0.011
     0.011
     0.000
     0.000
     0.027
     0.005
    -0.099
    -0.158
    -0.128
    -0.070
    -0.010
    -0.033
    -0.033
     0.010
    -0.025
    -0.049
    -0.014
     0.009
     0.017
     0.017
     0.016
     0.014
     0.000
     0.000
    -0.008
    -0.065
    -0.220
    -0.407
    -0.574
    -0.694
    -0.762
    -0.821
    -0.753
    -0.563
    -0.422
    -0.276
    -0.096
     0.002
     0.024
     0.024
     0.020
     0.017
     0.000
     0.000
     0.010
     0.026
     0.047
     0.048
     0.019
    -0.005
    -0.034
    -0.083
    -0.064
     0.004
    -0.016
    -0.032
     0.038
     0.072
     0.053
     0.034
     0.023
     0.018
     0.000
     0.000
     0.017
     0.093
     0.275
     0.484
     0.661
     0.857
     0.979
     0.961
     0.912
     0.854
     0.717
     0.538
     0.367
     0.201
     0.083
     0.036
     0.020
     0.015
     0.000
     0.000
    -0.041
    -0.027
     0.048
     0.070
     0.020
     0.064
     0.132
     0.118
     0.101
     0.062
    -0.000
    -0.031
    -0.030
    -0.012
     0.000
     0.006
     0.008
     0.008
     0.000
     0.000
    -0.121
    -0.227
    -0.332
    -0.530
    -0.787
    -0.932
    -0.984
    -1.000
    -0.948
    -0.866
    -0.750
    -0.584
    -0.401
    -0.210
    -0.076
    -0.021
    -0.003
     0.002
     0.000
     0.000
     0.000
     0.000
     0.000
     0.000
     0.000
     0.000
     0.000
     0.000
     0.000
     0.000
     0.000
     0.000
     0.000
     0.000
     0.000
     0.000
     0.000
     0.000
     0.000
SCALARS Shear_mist float
LOOKUP_TABLE default
     0.656
     0.110
     0.256
     0.439
     0.211
     0.064
     0.071
     0.019
     0.011
     0.059
     0.127
     0.175
     0.240
     0.253
     0.133
     0.048
     0.014
     0.002
     0.000
     0.722
     0.707
     0.005
     0.060
     0.124
     0.112
     0.212
     0.216
     0.283
     0.343
     0.105
     0.284
     0.232
     0.117
     0.186
     0.083
     0.002
     0.009
     0.006
     0.003
     0.722
     0.746
     0.069
     0.188
     0.456
     0.845
     0.759
     0.400
     0.121
     0.247
     0.117
     0.135
     0.125
     0.540
     0.802
     0.458
     0.131
     0.043
     0.016
     0.005
     0.720
     0.745
     0.043
     0.051
     0.043
     0.417
     0.478
     0.126
     0.104
     0.211
     0.418
     0.397
     0.039
     0.201
     0.012
     0.032
     0.021
     0.015
     0.008
     0.003
     0.716
     0.732
     0.022
     0.032
     0.026
     0.082
     0.257
     0.327
     0.297
     0.054
     0.005
     0.011
     0.147
     0.270
     0.227
     0.096
     0.032
     0.010
     0.003
     0.001
     0.710
     0.713
     0.008
     0.006
     0.067
     0.125
     0.301
     0.103
     0.237
     0.599
     0.397
     0.042
     0.142
     0.207
     0.160
     0.090
     0.043
     0.019
     0.008
     0.003
     0.704
     0.700
     0.046
     0.170
     0.468
     0.340
     0.124
     0.077
     0.140
     0.052
     0.023
     0.109
     0.264
     0.234
     0.117
     0.059
     0.031
     0.016
     0.008
     0.003
     0.700
     0.719
     0.020
     0.063
     0.106
     0.184
     0.412
     0.326
     0.099
     0.087
     0.441
     0.234
     0.057
     0.056
     0.015
     0.001
     0.004
     0.006
     0.005
     0.002
     0.697
     0.723
     0.050
     0.194
     0.537
     0.832
     0.733
     0.420
     0.324
     0.021
     0.160
     0.338
     0.756
     0.845
     0.311
     0.081
     0.019
     0.001
     0.002
     0.002
     0.696
     0.683
     0.031
     0.022
     0.052
     0.254
     0.188
     0.044
     0.576
     0.081
     0.260
     0.256
     0.148
     0.222
     0.053
     0.006
     0.004
     0.005
     0.004
     0.002
     0.696
     0.643
     0.121
     0.251
     0.397
     0.218
     0.087
     0.019
     0.010
     0.035
     0.126
     0.229
     0.288
     0.237
     0.109
     0.047
     0.023
     0.013
     0.007
     0.003
     0.696
     0.653
     0.114
     0.271
     0.476
     0.216
     0.059
     0.010
     0.058
     0.049
     0.093
     0.260
     0.306
     0.204
     0.100
     0.050
     0.027
     0.016
     0.009
     0.004
     0.699
     0.716
     0.021
     0.101
     0.203
     0.038
     0.152
     0.274
     0.341
     0.191
     0.209
     0.160
     0.058
     0.109
     0.035
     0.027
     0.021
     0.014
     0.009
     0.004
     0.703
     0.760
     0.082
     0.197
     0.439
     0.740
     0.681
     0.469
     0.155
     0.307
     0.297
     0.539
     0.787
     0.519
     0.094
     0.000
     0.014
     0.012
     0.007
     0.003
     0.710
     0.764
     0.052
     0.036
     0.081
     0.356
     0.336
     0.135
     0.426
     0.250
     0.320
     0.206
     0.196
     0.228
     0.106
     0.054
     0.025
     0.011
     0.005
     0.002
     0.718
     0.764
     0.040
     0.013
     0.197
     0.479
     0.317
     0.114
     0.061
     0.004
     0.090
     0.142
     0.221
     0.321
     0.236
     0.085
     0.022
     0.003
     0.001
     0.001
     0.727
     0.774
     0.073
     0.088
     0.029
     0.248
     0.520
     0.280
     0.115
     0.188
     0.298
     0.165
     0.112
     0.101
     0.126
     0.026
     0.026
     0.020
     0.011
     0.005
     0.735
     0.768
     0.105
     0.256
     0.531
     0.916
     0.963
     0.461
     0.115
     0.305
     0.070
     0.047
     0.222
     0.922
     1.000
     0.444
     0.131
     0.045
     0.018
     0.007
     0.741
     0.708
     0.016
     0.100
     0.055
     0.184
     0.212
     0.199
     0.238
     0.263
     0.093
     0.204
     0.113
     0.170
     0.203
     0.062
     0.009
     0.013
     0.009
     0.004
     0.744
     0.627
     0.168
     0.376
     0.419
     0.121
     0.020
     0.071
     0.011
     0.007
     0.058
     0.123
     0.195
     0.308
     0.291
     0.133
     0.045
     0.011
     0.000
     0.001
     0.745
SCALARS KX float
LOOKUP_TABLE default
     1.000
     1.000
     1.000
     1.000
     1.000
     1.000
     1.000
     1.000
     1.000
     1.000
     1.000
     1.000
     1.000
     1.000
     1.000
     1.000
     1.000
     1.000
     1.000
     1.000
     1.000
     1.000
     1.000
     1.000
     1.000
     1.000
     1.000
     1.000
     1.000
     1.000
     1.000
     1.000
     1.000
     1.000
     1.000
     1.000
     1.000
     1.000
     1.000
     1.000
     1.000
     1.000
     1.000
     1.000
     1.000
     1.000
     1.000
     1.000
     1.000
     1.000
     1.000
     1.000
     1.000
     1.000
     1.000
     1.000
     1.000
     1.000
     1.000
     1.000
     1.000
     1.000
     1.000
     1.000
     1.000
     1.000
     1.000
     1.000
     1.000
     1.000
     1.000
     1.000
     1.000
     1.000
     1.000
     1.000
     1.000
     1.000
     1.000
     1.000
     1.000
     1.000
     1.000
     1.000
     1.000
     1.000
     1.000
     1.000
     1.000
     1.000
     1.000
     1.000
     1.000
     1.000
     1.000
     1.000
     1.000
     1.000
     1.000
     1.000
     1.000
     1.000
     1.000
     1.000
     1.000
     1.000
     1.000
     1.000
     1.000
     1.000
     1.000
     1.000
     1.000
     1.000
     1.000
     1.000
     1.000
     1.000
     1.000
     1.000
     1.000
     1.000
     1.000
     1.000
     1.000
     1.000
     1.000
     1.000
     1.000
     1.000
     1.000
     1.000
     1.000
     1.000
     1.000
     1.000
     1.000
     1.000
     1.000
     1.000
     1.000
     1.000
     1.000
     1.000
     1.000
     1.000
     1.000
     1.000
     1.000
     1.000
     1.000
     1.000
     1.000
     1.000
     1.000
     1.000
     1.000
     1.000
     1.000
     1.000
     1.000
     1.000
     1.000
     1.000
     1.000
     1.000
     1.000
     1.000
     1.000
     1.000
     1.000
     1.000
     1.000
     1.000
     1.000
     1.000
     1.000
     1.000
     1.000
     1.000
     1.000
     1.000
     1.000
     1.000
     1.000
     1.000
     1.000
     1.000
     1.000
     1.000
     1.000
     1.000
     1.000
     1.000
     1.000
     1.000
     1.000
     1.000
     1.000
     1.000
     1.000
     1.000
     1.000
     1.000
     1.000
     1.000
     1.000
     1.000
     1.000
     1.000
     1.000
     1.000
     1.000
     1.000
     1.000
     1.000
     1.000
     1.000
     1.000
     1.000
     1.000
     1.000
     1.000
     1.000
     1.000
     1.000
     1.000
     1.000
     1.000
     1.000
     1.000
     1.000
     1.000
     1.000
     1.000
     1.000
     1.000
     1.000
     1.000
     1.000
     1.000
     1.000
     1.000
     1.000
     1.000
     1.000
     1.000
     1.000
     1.000
     1.000
     1.000
     1.000
     1.000
     1.000
     1.000
     1.000
     1.000
     1.000
     1.000
     1.000
     1.000
     1.000
     1.000
     1.000
     1.000
     1.000
     1.000
     1.000
     1.000
     1.000
     1.000
     1.000
     1.000
     1.000
     1.000
     1.000
     1.000
     1.000
     1.000
     1.000
     1.000
     1.000
     1.000
     1.000
     1.000
     1.000
     1.000
     1.000
     1.000
     1.000
     1.000
     1.000
     1.000
     1.000
     1.000
     1.000
     1.000
     1.000
     1.000
     1.000
     1.000
     1.000
     1.000
     1.000
     1.000
     1.000
     1.000
     1.000
     1.000
     1.000
     1.000
     1.000
     1.000
     1.000
     1.000
     1.000
     1.000
     1.000
     1.000
     1.000
     1.000
     1.000
     1.000
     1.000
     1.000
     1.000
     1.000
     1.000
     1.000
     1.000
     1.000
     1.000
     1.000
     1.000
     1.000
     1.000
     1.000
     1.000
     1.000
     1.000
     1.000
     1.000
     1.000
     1.000
     1.000
     1.000
     1.000
     1.000
     1.000
     1.000
     1.000
     1.000
     1.000
     1.000
     1.000
     1.000
     1.000
     1.000
     1.000
     1.000
     1.000
     1.000
     1.000
     1.000
     1.000
     1.000
     1.000
     1.000
     1.000
     1.000
     1.000
     1.000
     1.000
     1.000
     1.000
     1.000
     1.000
     1.000
     1.000
     1.000
     1.000
     1.000
     1.000
     1.000
     1.000
     1.000
     1.000
     1.000
     1.000
     1.000
     1.000
     1.000
     1.000
     1.000
     1.000
     1.000
     1.000
     1.000
     1.000
     1.000
SCALARS KY float
LOOKUP_TABLE default
     1.000
     1.000
     1.000
     1.000
     1.000
     1.000
     1.000
     1.000
     1.000
     1.000
     1.000
     1.000
     1.000
     1.000
     1.000
     1.000
     1.000
     1.000
     1.000
     1.000
     1.000
     1.000
     1.000
     1.000
     1.000
     1.000
     1.000
     1.000
     1.000
     1.000
     1.000
     1.000
     1.000
     1.000
     1.000
     1.000
     1.000
     1.000
     1.000
     1.000
     1.000
     1.000
     1.000
     1.000
     1.000
     1.000
     1.000
     1.000
     1.000
     1.000
     1.000
     1.000
     1.000
     1.000
     1.000
     1.000
     1.000
     1.000
     1.000
     1.000
     1.000
     1.000
     1.000
     1.000
     1.000
     1.000
     1.000
     1.000
     1.000
     1.000
     1.000
     1.000
     1.000
     1.000
     1.000
     1.000
     1.000
     1.000
     1.000
     1.000
     1.000
     1.000
     1.000
     1.000
     1.000
     1.000
     1.000
     1.000
     1.000
     1.000
     1.000
     1.000
     1.000
     1.000
     1.000
     1.000
     1.000
     1.000
     1.000
     1.000
     1.000
     1.000
     1.000
     1.000
     1.000
     1.000
     1.000
     1.000
     1.000
     1.000
     1.000
     1.000
     1.000
     1.000
     1.000
     1.000
     1.000
     1.000
     1.000
     1.000
     1.000
     1.000
     1.000
     1.000
     1.000
     1.000
     1.000
     1.000
     1.000
     1.000
     1.000
     1.000
     1.000
     1.000
     1.000
     1.000
     1.000
     1.000
     1.000
     1.000
     1.000
     1.000
     1.000
     1.000
     1.000
     1.000
     1.000
     1.000
     1.000
     1.000
     1.000
     1.000
     1.000
     1.000
     1.000
     1.000
     1.000
     1.000
     1.000
     1.000
     1.000
     1.000
     1.000
     1.000
     1.000
     1.000
     1.000
     1.000
     1.000
     1.000
     1.000
     1.000
     1.000
     1.000
     1.000
     1.000
     1.000
     1.000
     1.000
     1.000
     1.000
     1.000
     1.000
     1.000
     1.000
     1.000
     1.000
     1.000
     1.000
     1.000
     1.000
     1.000
     1.000
     1.000
     1.000
     1.000
     1.000
     1.000
     1.000
     1.000
     1.000
     1.000
     1.000
     1.000
     1.000
     1.000
     1.000
     1.000
     1.000
     1.000
     1.000
     1.000
     1.000
     1.000
     1.000
     1.000
     1.000
     1.000
     1.000
     1.000
     1.000
     1.000
     1.000
     1.000
     1.000
     1.000
     1.000
     1.000
     1.000
     1.000
     1.000
     1.000
     1.000
     1.000
     1.000
     1.000
     1.000
     1.000
     1.000
     1.000
     1.000
     1.000
     1.000
     1.000
     1.000
     1.000
     1.000
     1.000
     1.000
     1.000
     1.000
     1.000
     1.000
     1.000
     1.000
     1.000
     1.000
     1.000
     1.000
     1.000
     1.000
     1.000
     1.000
     1.000
     1.000
     1.000
     1.000
     1.000
     1.000
     1.000
     1.000
     1.000
     1.000
     1.000
     1.000
     1.000
     1.000
     1.000
     1.000
     1.000
     1.000
     1.000
     1.000
     1.000